M 1.00000 4 (195.00, 300.00, 0.00), (200.00, 300.00), 10.00
s 1.000000000 _4_ AGT  --- 0 tcp 40 [0 0 0 0] ------- [4:0 0:0 32 0] [0 0] 0 0
r 1.000000000 _4_ RTR  --- 0 tcp 40 [0 0 0 0] ------- [4:0 0:0 32 0] [0 0] 0 0
s 1.000000000 _6_ AGT  --- 1 tcp 40 [0 0 0 0] ------- [6:0 0:1 32 0] [0 0] 0 0
r 1.000000000 _6_ RTR  --- 1 tcp 40 [0 0 0 0] ------- [6:0 0:1 32 0] [0 0] 0 0
s 1.000000000 _4_ RTR  --- 0 AODV 48 [0 0 0 0] ------- [4:255 -1:255 30 0] [0x2 1 1 [0 0] [4 4]] (REQUEST)
s 1.000000000 _6_ RTR  --- 0 AODV 48 [0 0 0 0] ------- [6:255 -1:255 30 0] [0x2 1 1 [0 0] [6 4]] (REQUEST)
s 1.000275000 _4_ MAC  --- 0 AODV 106 [0 ffffffff 4 800] ------- [4:255 -1:255 30 0] [0x2 1 1 [0 0] [4 4]] (REQUEST)
r 1.001123357 _5_ MAC  --- 0 AODV 48 [0 ffffffff 4 800] ------- [4:255 -1:255 30 0] [0x2 1 1 [0 0] [4 4]] (REQUEST)
r 1.001123687 _6_ MAC  --- 0 AODV 48 [0 ffffffff 4 800] ------- [4:255 -1:255 30 0] [0x2 1 1 [0 0] [4 4]] (REQUEST)
r 1.001123760 _0_ MAC  --- 0 AODV 48 [0 ffffffff 4 800] ------- [4:255 -1:255 30 0] [0x2 1 1 [0 0] [4 4]] (REQUEST)
r 1.001148357 _5_ RTR  --- 0 AODV 48 [0 ffffffff 4 800] ------- [4:255 -1:255 30 0] [0x2 1 1 [0 0] [4 4]] (REQUEST)
r 1.001148687 _6_ RTR  --- 0 AODV 48 [0 ffffffff 4 800] ------- [4:255 -1:255 30 0] [0x2 1 1 [0 0] [4 4]] (REQUEST)
r 1.001148760 _0_ RTR  --- 0 AODV 48 [0 ffffffff 4 800] ------- [4:255 -1:255 30 0] [0x2 1 1 [0 0] [4 4]] (REQUEST)
s 1.001148760 _0_ RTR  --- 0 AODV 44 [0 0 0 0] ------- [0:255 4:255 30 4] [0x4 1 [0 4] 10.000000] (REPLY)
s 1.001213687 _6_ MAC  --- 0 AODV 106 [0 ffffffff 6 800] ------- [6:255 -1:255 30 0] [0x2 1 1 [0 0] [6 4]] (REQUEST)
r 1.002062017 _5_ MAC  --- 0 AODV 48 [0 ffffffff 6 800] ------- [6:255 -1:255 30 0] [0x2 1 1 [0 0] [6 4]] (REQUEST)
r 1.002062344 _7_ MAC  --- 0 AODV 48 [0 ffffffff 6 800] ------- [6:255 -1:255 30 0] [0x2 1 1 [0 0] [6 4]] (REQUEST)
r 1.002062373 _4_ MAC  --- 0 AODV 48 [0 ffffffff 6 800] ------- [6:255 -1:255 30 0] [0x2 1 1 [0 0] [6 4]] (REQUEST)
r 1.002062441 _0_ MAC  --- 0 AODV 48 [0 ffffffff 6 800] ------- [6:255 -1:255 30 0] [0x2 1 1 [0 0] [6 4]] (REQUEST)
r 1.002087017 _5_ RTR  --- 0 AODV 48 [0 ffffffff 6 800] ------- [6:255 -1:255 30 0] [0x2 1 1 [0 0] [6 4]] (REQUEST)
r 1.002087344 _7_ RTR  --- 0 AODV 48 [0 ffffffff 6 800] ------- [6:255 -1:255 30 0] [0x2 1 1 [0 0] [6 4]] (REQUEST)
r 1.002087373 _4_ RTR  --- 0 AODV 48 [0 ffffffff 6 800] ------- [6:255 -1:255 30 0] [0x2 1 1 [0 0] [6 4]] (REQUEST)
r 1.002087441 _0_ RTR  --- 0 AODV 48 [0 ffffffff 6 800] ------- [6:255 -1:255 30 0] [0x2 1 1 [0 0] [6 4]] (REQUEST)
s 1.002087441 _0_ RTR  --- 0 AODV 44 [0 0 0 0] ------- [0:255 6:255 30 6] [0x4 1 [0 6] 10.000000] (REPLY)
s 1.002152441 _0_ MAC  --- 0 ARP 86 [0 ffffffff 0 806] ------- [REQUEST 0/0 0/4]
r 1.002841121 _5_ MAC  --- 0 ARP 28 [0 ffffffff 0 806] ------- [REQUEST 0/0 0/4]
r 1.002841195 _6_ MAC  --- 0 ARP 28 [0 ffffffff 0 806] ------- [REQUEST 0/0 0/4]
r 1.002841201 _4_ MAC  --- 0 ARP 28 [0 ffffffff 0 806] ------- [REQUEST 0/0 0/4]
s 1.003050441 _0_ MAC  --- 0 ARP 86 [0 ffffffff 0 806] ------- [REQUEST 0/0 0/6]
s 1.003225426 _7_ RTR  --- 0 AODV 48 [0 ffffffff 6 800] ------- [7:255 -1:255 29 0] [0x2 2 1 [0 0] [6 4]] (REQUEST)
r 1.003739121 _5_ MAC  --- 0 ARP 28 [0 ffffffff 0 806] ------- [REQUEST 0/0 0/6]
r 1.003739195 _6_ MAC  --- 0 ARP 28 [0 ffffffff 0 806] ------- [REQUEST 0/0 0/6]
r 1.003739201 _4_ MAC  --- 0 ARP 28 [0 ffffffff 0 806] ------- [REQUEST 0/0 0/6]
s 1.003929201 _4_ MAC  --- 0 RTS 44 [52e 0 4 0] 
s 1.004239147 _5_ RTR  --- 0 AODV 48 [0 ffffffff 4 800] ------- [5:255 -1:255 29 0] [0x2 2 1 [0 0] [4 4]] (REQUEST)
r 1.004281962 _0_ MAC  --- 0 RTS 44 [52e 0 4 0] 
s 1.004291962 _0_ MAC  --- 0 CTS 38 [3f4 4 0 0] 
r 1.004596722 _4_ MAC  --- 0 CTS 38 [3f4 4 0 0] 
s 1.004606722 _4_ MAC  --- 0 ARP 86 [13a 0 4 806] ------- [REPLY 4/4 0/0]
r 1.005295482 _0_ MAC  --- 0 ARP 28 [13a 0 4 806] ------- [REPLY 4/4 0/0]
s 1.005305482 _0_ MAC  --- 0 ACK 38 [0 4 0 0] 
r 1.005610243 _4_ MAC  --- 0 ACK 38 [0 4 0 0] 
s 1.005859482 _0_ MAC  --- 0 RTS 44 [5ae 4 0 0] 
r 1.006212243 _4_ MAC  --- 0 RTS 44 [5ae 4 0 0] 
s 1.006222243 _4_ MAC  --- 0 CTS 38 [474 0 0 0] 
r 1.006527003 _0_ MAC  --- 0 CTS 38 [474 0 0 0] 
s 1.006537003 _0_ MAC  --- 0 AODV 102 [13a 4 0 800] ------- [0:255 4:255 30 4] [0x4 1 [0 4] 10.000000] (REPLY)
r 1.007353763 _4_ MAC  --- 0 AODV 44 [13a 4 0 800] ------- [0:255 4:255 30 4] [0x4 1 [0 4] 10.000000] (REPLY)
s 1.007363763 _4_ MAC  --- 0 ACK 38 [0 0 0 0] 
r 1.007378763 _4_ RTR  --- 0 AODV 44 [13a 4 0 800] ------- [0:255 4:255 30 4] [0x4 1 [0 4] 10.000000] (REPLY)
s 1.007378763 _4_ RTR  --- 0 tcp 40 [0 0 0 0] ------- [4:0 0:0 30 0] [0 0] 0 0
r 1.007668524 _0_ MAC  --- 0 ACK 38 [0 0 0 0] 
s 1.007737763 _4_ MAC  --- 0 RTS 44 [58e 0 4 0] 
r 1.008090524 _0_ MAC  --- 0 RTS 44 [58e 0 4 0] 
s 1.008100524 _0_ MAC  --- 0 CTS 38 [454 4 0 0] 
r 1.008405284 _4_ MAC  --- 0 CTS 38 [454 4 0 0] 
s 1.008415284 _4_ MAC  --- 0 tcp 98 [13a 0 4 800] ------- [4:0 0:0 30 0] [0 0] 0 0
s 1.008487693 _5_ RTR  --- 0 AODV 48 [0 ffffffff 6 800] ------- [5:255 -1:255 29 0] [0x2 2 1 [0 0] [6 4]] (REQUEST)
r 1.009200044 _0_ MAC  --- 0 tcp 40 [13a 0 4 800] ------- [4:0 0:0 30 0] [0 0] 1 0
s 1.009210044 _0_ MAC  --- 0 ACK 38 [0 4 0 0] 
r 1.009225044 _0_ AGT  --- 0 tcp 40 [13a 0 4 800] ------- [4:0 0:0 30 0] [0 0] 1 0
s 1.009225044 _0_ AGT  --- 2 ack 40 [0 0 0 0] ------- [0:0 4:0 32 0] [0 0] 0 0
r 1.009225044 _0_ RTR  --- 2 ack 40 [0 0 0 0] ------- [0:0 4:0 32 0] [0 0] 0 0
s 1.009225044 _0_ RTR  --- 2 ack 40 [0 0 0 0] ------- [0:0 4:0 30 4] [0 0] 0 0
s 1.009511922 _6_ RTR  --- 0 AODV 48 [0 ffffffff 4 800] ------- [6:255 -1:255 29 0] [0x2 2 1 [0 0] [4 4]] (REQUEST)
r 1.009514804 _4_ MAC  --- 0 ACK 38 [0 4 0 0] 
s 1.009604798 _6_ MAC  --- 0 RTS 44 [52e 0 6 0] 
r 1.009957553 _0_ MAC  --- 0 RTS 44 [52e 0 6 0] 
s 1.009967553 _0_ MAC  --- 0 CTS 38 [3f4 6 0 0] 
r 1.010272307 _6_ MAC  --- 0 CTS 38 [3f4 6 0 0] 
s 1.010282307 _6_ MAC  --- 0 ARP 86 [13a 0 6 806] ------- [REPLY 6/6 0/0]
s 1.010684650 _4_ RTR  --- 0 AODV 48 [0 ffffffff 6 800] ------- [4:255 -1:255 29 0] [0x2 2 1 [0 0] [6 4]] (REQUEST)
r 1.010971061 _0_ MAC  --- 0 ARP 28 [13a 0 6 806] ------- [REPLY 6/6 0/0]
s 1.010981061 _0_ MAC  --- 0 ACK 38 [0 6 0 0] 
r 1.011285816 _6_ MAC  --- 0 ACK 38 [0 6 0 0] 
s 1.011435741 _5_ MAC  --- 0 AODV 106 [0 ffffffff 5 800] ------- [5:255 -1:255 29 0] [0x2 2 1 [0 0] [4 4]] (REQUEST)
r 1.012284071 _6_ MAC  --- 0 AODV 48 [0 ffffffff 5 800] ------- [5:255 -1:255 29 0] [0x2 2 1 [0 0] [4 4]] (REQUEST)
r 1.012284098 _4_ MAC  --- 0 AODV 48 [0 ffffffff 5 800] ------- [5:255 -1:255 29 0] [0x2 2 1 [0 0] [4 4]] (REQUEST)
r 1.012284421 _0_ MAC  --- 0 AODV 48 [0 ffffffff 5 800] ------- [5:255 -1:255 29 0] [0x2 2 1 [0 0] [4 4]] (REQUEST)
r 1.012309071 _6_ RTR  --- 0 AODV 48 [0 ffffffff 5 800] ------- [5:255 -1:255 29 0] [0x2 2 1 [0 0] [4 4]] (REQUEST)
r 1.012309098 _4_ RTR  --- 0 AODV 48 [0 ffffffff 5 800] ------- [5:255 -1:255 29 0] [0x2 2 1 [0 0] [4 4]] (REQUEST)
r 1.012309421 _0_ RTR  --- 0 AODV 48 [0 ffffffff 5 800] ------- [5:255 -1:255 29 0] [0x2 2 1 [0 0] [4 4]] (REQUEST)
s 1.012414421 _0_ MAC  --- 0 RTS 44 [58e 4 0 0] 
r 1.012767182 _4_ MAC  --- 0 RTS 44 [58e 4 0 0] 
s 1.012777182 _4_ MAC  --- 0 CTS 38 [454 0 0 0] 
r 1.013081942 _0_ MAC  --- 0 CTS 38 [454 0 0 0] 
s 1.013091942 _0_ MAC  --- 2 ack 98 [13a 4 0 800] ------- [0:0 4:0 30 4] [0 0] 0 0
r 1.013876702 _4_ MAC  --- 2 ack 40 [13a 4 0 800] ------- [0:0 4:0 30 4] [0 0] 1 0
s 1.013886702 _4_ MAC  --- 0 ACK 38 [0 0 0 0] 
r 1.013901702 _4_ AGT  --- 2 ack 40 [13a 4 0 800] ------- [0:0 4:0 30 4] [0 0] 1 0
s 1.013901702 _4_ AGT  --- 3 tcp 1540 [0 0 0 0] ------- [4:0 0:0 32 0] [1 0] 0 0
r 1.013901702 _4_ RTR  --- 3 tcp 1540 [0 0 0 0] ------- [4:0 0:0 32 0] [1 0] 0 0
s 1.013901702 _4_ AGT  --- 4 tcp 1540 [0 0 0 0] ------- [4:0 0:0 32 0] [2 0] 0 0
r 1.013901702 _4_ RTR  --- 4 tcp 1540 [0 0 0 0] ------- [4:0 0:0 32 0] [2 0] 0 0
s 1.013901702 _4_ RTR  --- 3 tcp 1540 [0 0 0 0] ------- [4:0 0:0 30 0] [1 0] 0 0
s 1.013901702 _4_ RTR  --- 4 tcp 1540 [0 0 0 0] ------- [4:0 0:0 30 0] [2 0] 0 0
r 1.014191462 _0_ MAC  --- 0 ACK 38 [0 0 0 0] 
s 1.014300702 _4_ MAC  --- 0 AODV 106 [0 ffffffff 4 800] ------- [4:255 -1:255 29 0] [0x2 2 1 [0 0] [6 4]] (REQUEST)
r 1.015149058 _5_ MAC  --- 0 AODV 48 [0 ffffffff 4 800] ------- [4:255 -1:255 29 0] [0x2 2 1 [0 0] [6 4]] (REQUEST)
r 1.015149388 _6_ MAC  --- 0 AODV 48 [0 ffffffff 4 800] ------- [4:255 -1:255 29 0] [0x2 2 1 [0 0] [6 4]] (REQUEST)
r 1.015149462 _0_ MAC  --- 0 AODV 48 [0 ffffffff 4 800] ------- [4:255 -1:255 29 0] [0x2 2 1 [0 0] [6 4]] (REQUEST)
r 1.015174058 _5_ RTR  --- 0 AODV 48 [0 ffffffff 4 800] ------- [4:255 -1:255 29 0] [0x2 2 1 [0 0] [6 4]] (REQUEST)
r 1.015174388 _6_ RTR  --- 0 AODV 48 [0 ffffffff 4 800] ------- [4:255 -1:255 29 0] [0x2 2 1 [0 0] [6 4]] (REQUEST)
r 1.015174462 _0_ RTR  --- 0 AODV 48 [0 ffffffff 4 800] ------- [4:255 -1:255 29 0] [0x2 2 1 [0 0] [6 4]] (REQUEST)
s 1.015259058 _5_ MAC  --- 0 AODV 106 [0 ffffffff 5 800] ------- [5:255 -1:255 29 0] [0x2 2 1 [0 0] [6 4]] (REQUEST)
r 1.016107388 _6_ MAC  --- 0 AODV 48 [0 ffffffff 5 800] ------- [5:255 -1:255 29 0] [0x2 2 1 [0 0] [6 4]] (REQUEST)
r 1.016107415 _4_ MAC  --- 0 AODV 48 [0 ffffffff 5 800] ------- [5:255 -1:255 29 0] [0x2 2 1 [0 0] [6 4]] (REQUEST)
r 1.016107738 _0_ MAC  --- 0 AODV 48 [0 ffffffff 5 800] ------- [5:255 -1:255 29 0] [0x2 2 1 [0 0] [6 4]] (REQUEST)
r 1.016132388 _6_ RTR  --- 0 AODV 48 [0 ffffffff 5 800] ------- [5:255 -1:255 29 0] [0x2 2 1 [0 0] [6 4]] (REQUEST)
r 1.016132415 _4_ RTR  --- 0 AODV 48 [0 ffffffff 5 800] ------- [5:255 -1:255 29 0] [0x2 2 1 [0 0] [6 4]] (REQUEST)
r 1.016132738 _0_ RTR  --- 0 AODV 48 [0 ffffffff 5 800] ------- [5:255 -1:255 29 0] [0x2 2 1 [0 0] [6 4]] (REQUEST)
s 1.016317388 _6_ MAC  --- 0 AODV 106 [0 ffffffff 6 800] ------- [6:255 -1:255 29 0] [0x2 2 1 [0 0] [4 4]] (REQUEST)
r 1.017165718 _5_ MAC  --- 0 AODV 48 [0 ffffffff 6 800] ------- [6:255 -1:255 29 0] [0x2 2 1 [0 0] [4 4]] (REQUEST)
r 1.017166045 _7_ MAC  --- 0 AODV 48 [0 ffffffff 6 800] ------- [6:255 -1:255 29 0] [0x2 2 1 [0 0] [4 4]] (REQUEST)
r 1.017166074 _4_ MAC  --- 0 AODV 48 [0 ffffffff 6 800] ------- [6:255 -1:255 29 0] [0x2 2 1 [0 0] [4 4]] (REQUEST)
r 1.017166143 _0_ MAC  --- 0 AODV 48 [0 ffffffff 6 800] ------- [6:255 -1:255 29 0] [0x2 2 1 [0 0] [4 4]] (REQUEST)
r 1.017190718 _5_ RTR  --- 0 AODV 48 [0 ffffffff 6 800] ------- [6:255 -1:255 29 0] [0x2 2 1 [0 0] [4 4]] (REQUEST)
r 1.017191045 _7_ RTR  --- 0 AODV 48 [0 ffffffff 6 800] ------- [6:255 -1:255 29 0] [0x2 2 1 [0 0] [4 4]] (REQUEST)
r 1.017191074 _4_ RTR  --- 0 AODV 48 [0 ffffffff 6 800] ------- [6:255 -1:255 29 0] [0x2 2 1 [0 0] [4 4]] (REQUEST)
r 1.017191143 _0_ RTR  --- 0 AODV 48 [0 ffffffff 6 800] ------- [6:255 -1:255 29 0] [0x2 2 1 [0 0] [4 4]] (REQUEST)
s 1.017396074 _4_ MAC  --- 0 RTS 44 [346e 0 4 0] 
r 1.017748835 _0_ MAC  --- 0 RTS 44 [346e 0 4 0] 
s 1.017758835 _0_ MAC  --- 0 CTS 38 [3334 4 0 0] 
r 1.018063595 _4_ MAC  --- 0 CTS 38 [3334 4 0 0] 
s 1.018073595 _4_ MAC  --- 3 tcp 1598 [13a 0 4 800] ------- [4:0 0:0 30 0] [1 0] 0 0
s 1.025702111 _7_ RTR  --- 0 AODV 48 [0 ffffffff 6 800] ------- [7:255 -1:255 28 0] [0x2 3 1 [0 0] [4 4]] (REQUEST)
r 1.030858355 _0_ MAC  --- 3 tcp 1540 [13a 0 4 800] ------- [4:0 0:0 30 0] [1 0] 1 0
s 1.030868355 _0_ MAC  --- 0 ACK 38 [0 4 0 0] 
r 1.030883355 _0_ AGT  --- 3 tcp 1540 [13a 0 4 800] ------- [4:0 0:0 30 0] [1 0] 1 0
s 1.030883355 _0_ AGT  --- 5 ack 40 [0 0 0 0] ------- [0:0 4:0 32 0] [1 0] 0 0
r 1.030883355 _0_ RTR  --- 5 ack 40 [0 0 0 0] ------- [0:0 4:0 32 0] [1 0] 0 0
s 1.030883355 _0_ RTR  --- 5 ack 40 [0 0 0 0] ------- [0:0 4:0 30 4] [1 0] 0 0
r 1.031173115 _4_ MAC  --- 0 ACK 38 [0 4 0 0] 
s 1.031362355 _0_ MAC  --- 0 RTS 44 [5ae 6 0 0] 
r 1.031715109 _6_ MAC  --- 0 RTS 44 [5ae 6 0 0] 
s 1.031725109 _6_ MAC  --- 0 CTS 38 [474 0 0 0] 
r 1.032029863 _0_ MAC  --- 0 CTS 38 [474 0 0 0] 
s 1.032039863 _0_ MAC  --- 0 AODV 102 [13a 6 0 800] ------- [0:255 6:255 30 6] [0x4 1 [0 6] 10.000000] (REPLY)
r 1.032856618 _6_ MAC  --- 0 AODV 44 [13a 6 0 800] ------- [0:255 6:255 30 6] [0x4 1 [0 6] 10.000000] (REPLY)
s 1.032866618 _6_ MAC  --- 0 ACK 38 [0 0 0 0] 
r 1.032881618 _6_ RTR  --- 0 AODV 44 [13a 6 0 800] ------- [0:255 6:255 30 6] [0x4 1 [0 6] 10.000000] (REPLY)
s 1.032881618 _6_ RTR  --- 1 tcp 40 [0 0 0 0] ------- [6:0 0:1 30 0] [0 0] 0 0
r 1.033171372 _0_ MAC  --- 0 ACK 38 [0 0 0 0] 
s 1.033280618 _6_ MAC  --- 0 RTS 44 [58e 0 6 0] 
r 1.033633372 _0_ MAC  --- 0 RTS 44 [58e 0 6 0] 
s 1.033643372 _0_ MAC  --- 0 CTS 38 [454 6 0 0] 
r 1.033948126 _6_ MAC  --- 0 CTS 38 [454 6 0 0] 
s 1.033958126 _6_ MAC  --- 1 tcp 98 [13a 0 6 800] ------- [6:0 0:1 30 0] [0 0] 0 0
r 1.034742881 _0_ MAC  --- 1 tcp 40 [13a 0 6 800] ------- [6:0 0:1 30 0] [0 0] 1 0
s 1.034752881 _0_ MAC  --- 0 ACK 38 [0 6 0 0] 
r 1.034767881 _0_ AGT  --- 1 tcp 40 [13a 0 6 800] ------- [6:0 0:1 30 0] [0 0] 1 0
s 1.034767881 _0_ AGT  --- 6 ack 40 [0 0 0 0] ------- [0:1 6:0 32 0] [0 0] 0 0
r 1.034767881 _0_ RTR  --- 6 ack 40 [0 0 0 0] ------- [0:1 6:0 32 0] [0 0] 0 0
s 1.034767881 _0_ RTR  --- 6 ack 40 [0 0 0 0] ------- [0:1 6:0 30 6] [0 0] 0 0
r 1.035057635 _6_ MAC  --- 0 ACK 38 [0 6 0 0] 
s 1.035247641 _4_ MAC  --- 0 RTS 44 [346e 0 4 0] 
r 1.035600400 _0_ MAC  --- 0 RTS 44 [346e 0 4 0] 
s 1.035610400 _0_ MAC  --- 0 CTS 38 [3334 4 0 0] 
r 1.035915160 _4_ MAC  --- 0 CTS 38 [3334 4 0 0] 
s 1.035925160 _4_ MAC  --- 4 tcp 1598 [13a 0 4 800] ------- [4:0 0:0 30 0] [2 0] 0 0
r 1.048709920 _0_ MAC  --- 4 tcp 1540 [13a 0 4 800] ------- [4:0 0:0 30 0] [2 0] 1 0
s 1.048719920 _0_ MAC  --- 0 ACK 38 [0 4 0 0] 
r 1.048734920 _0_ AGT  --- 4 tcp 1540 [13a 0 4 800] ------- [4:0 0:0 30 0] [2 0] 1 0
s 1.048734920 _0_ AGT  --- 7 ack 40 [0 0 0 0] ------- [0:0 4:0 32 0] [2 0] 0 0
r 1.048734920 _0_ RTR  --- 7 ack 40 [0 0 0 0] ------- [0:0 4:0 32 0] [2 0] 0 0
s 1.048734920 _0_ RTR  --- 7 ack 40 [0 0 0 0] ------- [0:0 4:0 30 4] [2 0] 0 0
r 1.049024680 _4_ MAC  --- 0 ACK 38 [0 4 0 0] 
s 1.049253920 _0_ MAC  --- 0 RTS 44 [58e 4 0 0] 
r 1.049606680 _4_ MAC  --- 0 RTS 44 [58e 4 0 0] 
s 1.049616680 _4_ MAC  --- 0 CTS 38 [454 0 0 0] 
r 1.049921439 _0_ MAC  --- 0 CTS 38 [454 0 0 0] 
s 1.049931439 _0_ MAC  --- 5 ack 98 [13a 4 0 800] ------- [0:0 4:0 30 4] [1 0] 0 0
r 1.050716199 _4_ MAC  --- 5 ack 40 [13a 4 0 800] ------- [0:0 4:0 30 4] [1 0] 1 0
s 1.050726199 _4_ MAC  --- 0 ACK 38 [0 0 0 0] 
r 1.050741199 _4_ AGT  --- 5 ack 40 [13a 4 0 800] ------- [0:0 4:0 30 4] [1 0] 1 0
s 1.050741199 _4_ AGT  --- 8 tcp 1540 [0 0 0 0] ------- [4:0 0:0 32 0] [3 0] 0 0
r 1.050741199 _4_ RTR  --- 8 tcp 1540 [0 0 0 0] ------- [4:0 0:0 32 0] [3 0] 0 0
s 1.050741199 _4_ AGT  --- 9 tcp 1540 [0 0 0 0] ------- [4:0 0:0 32 0] [4 0] 0 0
r 1.050741199 _4_ RTR  --- 9 tcp 1540 [0 0 0 0] ------- [4:0 0:0 32 0] [4 0] 0 0
s 1.050741199 _4_ RTR  --- 8 tcp 1540 [0 0 0 0] ------- [4:0 0:0 30 0] [3 0] 0 0
s 1.050741199 _4_ RTR  --- 9 tcp 1540 [0 0 0 0] ------- [4:0 0:0 30 0] [4 0] 0 0
r 1.051030959 _0_ MAC  --- 0 ACK 38 [0 0 0 0] 
s 1.051280959 _0_ MAC  --- 0 RTS 44 [58e 6 0 0] 
r 1.051633713 _6_ MAC  --- 0 RTS 44 [58e 6 0 0] 
s 1.051643713 _6_ MAC  --- 0 CTS 38 [454 0 0 0] 
r 1.051948467 _0_ MAC  --- 0 CTS 38 [454 0 0 0] 
s 1.051958467 _0_ MAC  --- 6 ack 98 [13a 6 0 800] ------- [0:1 6:0 30 6] [0 0] 0 0
r 1.052743222 _6_ MAC  --- 6 ack 40 [13a 6 0 800] ------- [0:1 6:0 30 6] [0 0] 1 0
s 1.052753222 _6_ MAC  --- 0 ACK 38 [0 0 0 0] 
r 1.052768222 _6_ AGT  --- 6 ack 40 [13a 6 0 800] ------- [0:1 6:0 30 6] [0 0] 1 0
s 1.052768222 _6_ AGT  --- 10 tcp 1540 [0 0 0 0] ------- [6:0 0:1 32 0] [1 0] 0 0
r 1.052768222 _6_ RTR  --- 10 tcp 1540 [0 0 0 0] ------- [6:0 0:1 32 0] [1 0] 0 0
s 1.052768222 _6_ AGT  --- 11 tcp 1540 [0 0 0 0] ------- [6:0 0:1 32 0] [2 0] 0 0
r 1.052768222 _6_ RTR  --- 11 tcp 1540 [0 0 0 0] ------- [6:0 0:1 32 0] [2 0] 0 0
s 1.052768222 _6_ RTR  --- 10 tcp 1540 [0 0 0 0] ------- [6:0 0:1 30 0] [1 0] 0 0
s 1.052768222 _6_ RTR  --- 11 tcp 1540 [0 0 0 0] ------- [6:0 0:1 30 0] [2 0] 0 0
r 1.053057976 _0_ MAC  --- 0 ACK 38 [0 0 0 0] 
s 1.053187907 _4_ MAC  --- 0 RTS 44 [346e 0 4 0] 
r 1.053540666 _0_ MAC  --- 0 RTS 44 [346e 0 4 0] 
s 1.053550666 _0_ MAC  --- 0 CTS 38 [3334 4 0 0] 
r 1.053855426 _4_ MAC  --- 0 CTS 38 [3334 4 0 0] 
s 1.053865426 _4_ MAC  --- 8 tcp 1598 [13a 0 4 800] ------- [4:0 0:0 30 0] [3 0] 0 0
r 1.066650185 _0_ MAC  --- 8 tcp 1540 [13a 0 4 800] ------- [4:0 0:0 30 0] [3 0] 1 0
s 1.066660185 _0_ MAC  --- 0 ACK 38 [0 4 0 0] 
r 1.066675185 _0_ AGT  --- 8 tcp 1540 [13a 0 4 800] ------- [4:0 0:0 30 0] [3 0] 1 0
s 1.066675185 _0_ AGT  --- 12 ack 40 [0 0 0 0] ------- [0:0 4:0 32 0] [3 0] 0 0
r 1.066675185 _0_ RTR  --- 12 ack 40 [0 0 0 0] ------- [0:0 4:0 32 0] [3 0] 0 0
s 1.066675185 _0_ RTR  --- 12 ack 40 [0 0 0 0] ------- [0:0 4:0 30 4] [3 0] 0 0
r 1.066964945 _4_ MAC  --- 0 ACK 38 [0 4 0 0] 
s 1.067034940 _6_ MAC  --- 0 RTS 44 [346e 0 6 0] 
r 1.067387694 _0_ MAC  --- 0 RTS 44 [346e 0 6 0] 
s 1.067397694 _0_ MAC  --- 0 CTS 38 [3334 6 0 0] 
r 1.067702448 _6_ MAC  --- 0 CTS 38 [3334 6 0 0] 
s 1.067712448 _6_ MAC  --- 10 tcp 1598 [13a 0 6 800] ------- [6:0 0:1 30 0] [1 0] 0 0
r 1.080497203 _0_ MAC  --- 10 tcp 1540 [13a 0 6 800] ------- [6:0 0:1 30 0] [1 0] 1 0
s 1.080507203 _0_ MAC  --- 0 ACK 38 [0 6 0 0] 
r 1.080522203 _0_ AGT  --- 10 tcp 1540 [13a 0 6 800] ------- [6:0 0:1 30 0] [1 0] 1 0
s 1.080522203 _0_ AGT  --- 13 ack 40 [0 0 0 0] ------- [0:1 6:0 32 0] [1 0] 0 0
r 1.080522203 _0_ RTR  --- 13 ack 40 [0 0 0 0] ------- [0:1 6:0 32 0] [1 0] 0 0
s 1.080522203 _0_ RTR  --- 13 ack 40 [0 0 0 0] ------- [0:1 6:0 30 6] [1 0] 0 0
r 1.080811957 _6_ MAC  --- 0 ACK 38 [0 6 0 0] 
s 1.081061957 _6_ MAC  --- 0 RTS 44 [346e 0 6 0] 
s 1.081061962 _4_ MAC  --- 0 RTS 44 [346e 0 4 0] 
D 1.081062721 _0_ MAC  COL 0 RTS 44 [346e 0 6 0] 
D 1.081414721 _0_ MAC  COL 0 RTS 44 [346e 0 4 0] 
s 1.082028646 _6_ MAC  --- 0 RTS 44 [346e 0 6 0] 
r 1.082381400 _0_ MAC  --- 0 RTS 44 [346e 0 6 0] 
s 1.082391400 _0_ MAC  --- 0 CTS 38 [3334 6 0 0] 
r 1.082696154 _6_ MAC  --- 0 CTS 38 [3334 6 0 0] 
s 1.082706154 _6_ MAC  --- 11 tcp 1598 [13a 0 6 800] ------- [6:0 0:1 30 0] [2 0] 0 0
r 1.095490909 _0_ MAC  --- 11 tcp 1540 [13a 0 6 800] ------- [6:0 0:1 30 0] [2 0] 1 0
s 1.095500909 _0_ MAC  --- 0 ACK 38 [0 6 0 0] 
r 1.095515909 _0_ AGT  --- 11 tcp 1540 [13a 0 6 800] ------- [6:0 0:1 30 0] [2 0] 1 0
s 1.095515909 _0_ AGT  --- 14 ack 40 [0 0 0 0] ------- [0:1 6:0 32 0] [2 0] 0 0
r 1.095515909 _0_ RTR  --- 14 ack 40 [0 0 0 0] ------- [0:1 6:0 32 0] [2 0] 0 0
s 1.095515909 _0_ RTR  --- 14 ack 40 [0 0 0 0] ------- [0:1 6:0 30 6] [2 0] 0 0
r 1.095805663 _6_ MAC  --- 0 ACK 38 [0 6 0 0] 
s 1.095874909 _0_ MAC  --- 0 RTS 44 [58e 4 0 0] 
r 1.096227668 _4_ MAC  --- 0 RTS 44 [58e 4 0 0] 
s 1.096237668 _4_ MAC  --- 0 CTS 38 [454 0 0 0] 
r 1.096542427 _0_ MAC  --- 0 CTS 38 [454 0 0 0] 
s 1.096552427 _0_ MAC  --- 7 ack 98 [13a 4 0 800] ------- [0:0 4:0 30 4] [2 0] 0 0
r 1.097337185 _4_ MAC  --- 7 ack 40 [13a 4 0 800] ------- [0:0 4:0 30 4] [2 0] 1 0
s 1.097347185 _4_ MAC  --- 0 ACK 38 [0 0 0 0] 
r 1.097362185 _4_ AGT  --- 7 ack 40 [13a 4 0 800] ------- [0:0 4:0 30 4] [2 0] 1 0
s 1.097362185 _4_ AGT  --- 15 tcp 1540 [0 0 0 0] ------- [4:0 0:0 32 0] [5 0] 0 0
r 1.097362185 _4_ RTR  --- 15 tcp 1540 [0 0 0 0] ------- [4:0 0:0 32 0] [5 0] 0 0
s 1.097362185 _4_ AGT  --- 16 tcp 1540 [0 0 0 0] ------- [4:0 0:0 32 0] [6 0] 0 0
r 1.097362185 _4_ RTR  --- 16 tcp 1540 [0 0 0 0] ------- [4:0 0:0 32 0] [6 0] 0 0
s 1.097362185 _4_ RTR  --- 15 tcp 1540 [0 0 0 0] ------- [4:0 0:0 30 0] [5 0] 0 0
s 1.097362185 _4_ RTR  --- 16 tcp 1540 [0 0 0 0] ------- [4:0 0:0 30 0] [6 0] 0 0
r 1.097651944 _0_ MAC  --- 0 ACK 38 [0 0 0 0] 
s 1.098041944 _0_ MAC  --- 0 RTS 44 [58e 4 0 0] 
r 1.098394703 _4_ MAC  --- 0 RTS 44 [58e 4 0 0] 
s 1.098404703 _4_ MAC  --- 0 CTS 38 [454 0 0 0] 
r 1.098709462 _0_ MAC  --- 0 CTS 38 [454 0 0 0] 
s 1.098719462 _0_ MAC  --- 12 ack 98 [13a 4 0 800] ------- [0:0 4:0 30 4] [3 0] 0 0
r 1.099504221 _4_ MAC  --- 12 ack 40 [13a 4 0 800] ------- [0:0 4:0 30 4] [3 0] 1 0
s 1.099514221 _4_ MAC  --- 0 ACK 38 [0 0 0 0] 
r 1.099529221 _4_ AGT  --- 12 ack 40 [13a 4 0 800] ------- [0:0 4:0 30 4] [3 0] 1 0
s 1.099529221 _4_ AGT  --- 17 tcp 1540 [0 0 0 0] ------- [4:0 0:0 32 0] [7 0] 0 0
r 1.099529221 _4_ RTR  --- 17 tcp 1540 [0 0 0 0] ------- [4:0 0:0 32 0] [7 0] 0 0
s 1.099529221 _4_ AGT  --- 18 tcp 1540 [0 0 0 0] ------- [4:0 0:0 32 0] [8 0] 0 0
r 1.099529221 _4_ RTR  --- 18 tcp 1540 [0 0 0 0] ------- [4:0 0:0 32 0] [8 0] 0 0
s 1.099529221 _4_ RTR  --- 17 tcp 1540 [0 0 0 0] ------- [4:0 0:0 30 0] [7 0] 0 0
s 1.099529221 _4_ RTR  --- 18 tcp 1540 [0 0 0 0] ------- [4:0 0:0 30 0] [8 0] 0 0
r 1.099818980 _0_ MAC  --- 0 ACK 38 [0 0 0 0] 
s 1.100348221 _4_ MAC  --- 0 RTS 44 [346e 0 4 0] 
r 1.100700980 _0_ MAC  --- 0 RTS 44 [346e 0 4 0] 
s 1.100710980 _0_ MAC  --- 0 CTS 38 [3334 4 0 0] 
r 1.101015739 _4_ MAC  --- 0 CTS 38 [3334 4 0 0] 
s 1.101025739 _4_ MAC  --- 9 tcp 1598 [13a 0 4 800] ------- [4:0 0:0 30 0] [4 0] 0 0
r 1.113810498 _0_ MAC  --- 9 tcp 1540 [13a 0 4 800] ------- [4:0 0:0 30 0] [4 0] 1 0
s 1.113820498 _0_ MAC  --- 0 ACK 38 [0 4 0 0] 
r 1.113835498 _0_ AGT  --- 9 tcp 1540 [13a 0 4 800] ------- [4:0 0:0 30 0] [4 0] 1 0
s 1.113835498 _0_ AGT  --- 19 ack 40 [0 0 0 0] ------- [0:0 4:0 32 0] [4 0] 0 0
r 1.113835498 _0_ RTR  --- 19 ack 40 [0 0 0 0] ------- [0:0 4:0 32 0] [4 0] 0 0
s 1.113835498 _0_ RTR  --- 19 ack 40 [0 0 0 0] ------- [0:0 4:0 30 4] [4 0] 0 0
r 1.114125256 _4_ MAC  --- 0 ACK 38 [0 4 0 0] 
s 1.114214498 _0_ MAC  --- 0 RTS 44 [58e 6 0 0] 
r 1.114567252 _6_ MAC  --- 0 RTS 44 [58e 6 0 0] 
s 1.114577252 _6_ MAC  --- 0 CTS 38 [454 0 0 0] 
r 1.114882006 _0_ MAC  --- 0 CTS 38 [454 0 0 0] 
s 1.114892006 _0_ MAC  --- 13 ack 98 [13a 6 0 800] ------- [0:1 6:0 30 6] [1 0] 0 0
r 1.115676761 _6_ MAC  --- 13 ack 40 [13a 6 0 800] ------- [0:1 6:0 30 6] [1 0] 1 0
s 1.115686761 _6_ MAC  --- 0 ACK 38 [0 0 0 0] 
r 1.115701761 _6_ AGT  --- 13 ack 40 [13a 6 0 800] ------- [0:1 6:0 30 6] [1 0] 1 0
s 1.115701761 _6_ AGT  --- 20 tcp 1540 [0 0 0 0] ------- [6:0 0:1 32 0] [3 0] 0 0
r 1.115701761 _6_ RTR  --- 20 tcp 1540 [0 0 0 0] ------- [6:0 0:1 32 0] [3 0] 0 0
s 1.115701761 _6_ AGT  --- 21 tcp 1540 [0 0 0 0] ------- [6:0 0:1 32 0] [4 0] 0 0
r 1.115701761 _6_ RTR  --- 21 tcp 1540 [0 0 0 0] ------- [6:0 0:1 32 0] [4 0] 0 0
s 1.115701761 _6_ RTR  --- 20 tcp 1540 [0 0 0 0] ------- [6:0 0:1 30 0] [3 0] 0 0
s 1.115701761 _6_ RTR  --- 21 tcp 1540 [0 0 0 0] ------- [6:0 0:1 30 0] [4 0] 0 0
r 1.115991515 _0_ MAC  --- 0 ACK 38 [0 0 0 0] 
s 1.116220761 _6_ MAC  --- 0 RTS 44 [346e 0 6 0] 
r 1.116573515 _0_ MAC  --- 0 RTS 44 [346e 0 6 0] 
s 1.116583515 _0_ MAC  --- 0 CTS 38 [3334 6 0 0] 
r 1.116888269 _6_ MAC  --- 0 CTS 38 [3334 6 0 0] 
s 1.116898269 _6_ MAC  --- 20 tcp 1598 [13a 0 6 800] ------- [6:0 0:1 30 0] [3 0] 0 0
r 1.129683023 _0_ MAC  --- 20 tcp 1540 [13a 0 6 800] ------- [6:0 0:1 30 0] [3 0] 1 0
s 1.129693023 _0_ MAC  --- 0 ACK 38 [0 6 0 0] 
r 1.129708023 _0_ AGT  --- 20 tcp 1540 [13a 0 6 800] ------- [6:0 0:1 30 0] [3 0] 1 0
s 1.129708023 _0_ AGT  --- 22 ack 40 [0 0 0 0] ------- [0:1 6:0 32 0] [3 0] 0 0
r 1.129708023 _0_ RTR  --- 22 ack 40 [0 0 0 0] ------- [0:1 6:0 32 0] [3 0] 0 0
s 1.129708023 _0_ RTR  --- 22 ack 40 [0 0 0 0] ------- [0:1 6:0 30 6] [3 0] 0 0
r 1.129997778 _6_ MAC  --- 0 ACK 38 [0 6 0 0] 
s 1.130147782 _4_ MAC  --- 0 RTS 44 [346e 0 4 0] 
r 1.130500540 _0_ MAC  --- 0 RTS 44 [346e 0 4 0] 
s 1.130510540 _0_ MAC  --- 0 CTS 38 [3334 4 0 0] 
r 1.130815299 _4_ MAC  --- 0 CTS 38 [3334 4 0 0] 
s 1.130825299 _4_ MAC  --- 15 tcp 1598 [13a 0 4 800] ------- [4:0 0:0 30 0] [5 0] 0 0
r 1.143610057 _0_ MAC  --- 15 tcp 1540 [13a 0 4 800] ------- [4:0 0:0 30 0] [5 0] 1 0
s 1.143620057 _0_ MAC  --- 0 ACK 38 [0 4 0 0] 
r 1.143635057 _0_ AGT  --- 15 tcp 1540 [13a 0 4 800] ------- [4:0 0:0 30 0] [5 0] 1 0
s 1.143635057 _0_ AGT  --- 23 ack 40 [0 0 0 0] ------- [0:0 4:0 32 0] [5 0] 0 0
r 1.143635057 _0_ RTR  --- 23 ack 40 [0 0 0 0] ------- [0:0 4:0 32 0] [5 0] 0 0
s 1.143635057 _0_ RTR  --- 23 ack 40 [0 0 0 0] ------- [0:0 4:0 30 4] [5 0] 0 0
r 1.143924815 _4_ MAC  --- 0 ACK 38 [0 4 0 0] 
s 1.143974815 _4_ MAC  --- 0 RTS 44 [346e 0 4 0] 
r 1.144327573 _0_ MAC  --- 0 RTS 44 [346e 0 4 0] 
s 1.144337573 _0_ MAC  --- 0 CTS 38 [3334 4 0 0] 
r 1.144642332 _4_ MAC  --- 0 CTS 38 [3334 4 0 0] 
s 1.144652332 _4_ MAC  --- 16 tcp 1598 [13a 0 4 800] ------- [4:0 0:0 30 0] [6 0] 0 0
r 1.157437090 _0_ MAC  --- 16 tcp 1540 [13a 0 4 800] ------- [4:0 0:0 30 0] [6 0] 1 0
s 1.157447090 _0_ MAC  --- 0 ACK 38 [0 4 0 0] 
r 1.157462090 _0_ AGT  --- 16 tcp 1540 [13a 0 4 800] ------- [4:0 0:0 30 0] [6 0] 1 0
s 1.157462090 _0_ AGT  --- 24 ack 40 [0 0 0 0] ------- [0:0 4:0 32 0] [6 0] 0 0
r 1.157462090 _0_ RTR  --- 24 ack 40 [0 0 0 0] ------- [0:0 4:0 32 0] [6 0] 0 0
s 1.157462090 _0_ RTR  --- 24 ack 40 [0 0 0 0] ------- [0:0 4:0 30 4] [6 0] 0 0
r 1.157751848 _4_ MAC  --- 0 ACK 38 [0 4 0 0] 
s 1.157821090 _0_ MAC  --- 0 RTS 44 [58e 6 0 0] 
r 1.158173844 _6_ MAC  --- 0 RTS 44 [58e 6 0 0] 
s 1.158183844 _6_ MAC  --- 0 CTS 38 [454 0 0 0] 
r 1.158488598 _0_ MAC  --- 0 CTS 38 [454 0 0 0] 
s 1.158498598 _0_ MAC  --- 14 ack 98 [13a 6 0 800] ------- [0:1 6:0 30 6] [2 0] 0 0
r 1.159283353 _6_ MAC  --- 14 ack 40 [13a 6 0 800] ------- [0:1 6:0 30 6] [2 0] 1 0
s 1.159293353 _6_ MAC  --- 0 ACK 38 [0 0 0 0] 
r 1.159308353 _6_ AGT  --- 14 ack 40 [13a 6 0 800] ------- [0:1 6:0 30 6] [2 0] 1 0
s 1.159308353 _6_ AGT  --- 25 tcp 1540 [0 0 0 0] ------- [6:0 0:1 32 0] [5 0] 0 0
r 1.159308353 _6_ RTR  --- 25 tcp 1540 [0 0 0 0] ------- [6:0 0:1 32 0] [5 0] 0 0
s 1.159308353 _6_ AGT  --- 26 tcp 1540 [0 0 0 0] ------- [6:0 0:1 32 0] [6 0] 0 0
r 1.159308353 _6_ RTR  --- 26 tcp 1540 [0 0 0 0] ------- [6:0 0:1 32 0] [6 0] 0 0
s 1.159308353 _6_ RTR  --- 25 tcp 1540 [0 0 0 0] ------- [6:0 0:1 30 0] [5 0] 0 0
s 1.159308353 _6_ RTR  --- 26 tcp 1540 [0 0 0 0] ------- [6:0 0:1 30 0] [6 0] 0 0
r 1.159598107 _0_ MAC  --- 0 ACK 38 [0 0 0 0] 
s 1.159757788 _7_ MAC  --- 0 AODV 106 [0 ffffffff 7 800] ------- [7:255 -1:255 29 0] [0x2 2 1 [0 0] [6 4]] (REQUEST)
r 1.160606122 _8_ MAC  --- 0 AODV 48 [0 ffffffff 7 800] ------- [7:255 -1:255 29 0] [0x2 2 1 [0 0] [6 4]] (REQUEST)
r 1.160606442 _9_ MAC  --- 0 AODV 48 [0 ffffffff 7 800] ------- [7:255 -1:255 29 0] [0x2 2 1 [0 0] [6 4]] (REQUEST)
r 1.160606445 _6_ MAC  --- 0 AODV 48 [0 ffffffff 7 800] ------- [7:255 -1:255 29 0] [0x2 2 1 [0 0] [6 4]] (REQUEST)
r 1.160606527 _1_ MAC  --- 0 AODV 48 [0 ffffffff 7 800] ------- [7:255 -1:255 29 0] [0x2 2 1 [0 0] [6 4]] (REQUEST)
r 1.160631122 _8_ RTR  --- 0 AODV 48 [0 ffffffff 7 800] ------- [7:255 -1:255 29 0] [0x2 2 1 [0 0] [6 4]] (REQUEST)
r 1.160631442 _9_ RTR  --- 0 AODV 48 [0 ffffffff 7 800] ------- [7:255 -1:255 29 0] [0x2 2 1 [0 0] [6 4]] (REQUEST)
r 1.160631445 _6_ RTR  --- 0 AODV 48 [0 ffffffff 7 800] ------- [7:255 -1:255 29 0] [0x2 2 1 [0 0] [6 4]] (REQUEST)
r 1.160631527 _1_ RTR  --- 0 AODV 48 [0 ffffffff 7 800] ------- [7:255 -1:255 29 0] [0x2 2 1 [0 0] [6 4]] (REQUEST)
s 1.160815788 _7_ MAC  --- 0 AODV 106 [0 ffffffff 7 800] ------- [7:255 -1:255 28 0] [0x2 3 1 [0 0] [4 4]] (REQUEST)
s 1.160907016 _9_ RTR  --- 0 AODV 48 [0 ffffffff 7 800] ------- [9:255 -1:255 28 0] [0x2 3 1 [0 0] [6 4]] (REQUEST)
r 1.161664122 _8_ MAC  --- 0 AODV 48 [0 ffffffff 7 800] ------- [7:255 -1:255 28 0] [0x2 3 1 [0 0] [4 4]] (REQUEST)
r 1.161664442 _9_ MAC  --- 0 AODV 48 [0 ffffffff 7 800] ------- [7:255 -1:255 28 0] [0x2 3 1 [0 0] [4 4]] (REQUEST)
r 1.161664445 _6_ MAC  --- 0 AODV 48 [0 ffffffff 7 800] ------- [7:255 -1:255 28 0] [0x2 3 1 [0 0] [4 4]] (REQUEST)
r 1.161664527 _1_ MAC  --- 0 AODV 48 [0 ffffffff 7 800] ------- [7:255 -1:255 28 0] [0x2 3 1 [0 0] [4 4]] (REQUEST)
r 1.161689122 _8_ RTR  --- 0 AODV 48 [0 ffffffff 7 800] ------- [7:255 -1:255 28 0] [0x2 3 1 [0 0] [4 4]] (REQUEST)
r 1.161689442 _9_ RTR  --- 0 AODV 48 [0 ffffffff 7 800] ------- [7:255 -1:255 28 0] [0x2 3 1 [0 0] [4 4]] (REQUEST)
r 1.161689445 _6_ RTR  --- 0 AODV 48 [0 ffffffff 7 800] ------- [7:255 -1:255 28 0] [0x2 3 1 [0 0] [4 4]] (REQUEST)
r 1.161689527 _1_ RTR  --- 0 AODV 48 [0 ffffffff 7 800] ------- [7:255 -1:255 28 0] [0x2 3 1 [0 0] [4 4]] (REQUEST)
s 1.161714442 _9_ MAC  --- 0 AODV 106 [0 ffffffff 9 800] ------- [9:255 -1:255 28 0] [0x2 3 1 [0 0] [6 4]] (REQUEST)
s 1.162199126 _4_ MAC  --- 0 RTS 44 [346e 0 4 0] 
D 1.162199884 _0_ MAC  COL 0 RTS 44 [346e 0 4 0] 
r 1.162562762 _8_ MAC  --- 0 AODV 48 [0 ffffffff 9 800] ------- [9:255 -1:255 28 0] [0x2 3 1 [0 0] [6 4]] (REQUEST)
r 1.162563095 _7_ MAC  --- 0 AODV 48 [0 ffffffff 9 800] ------- [9:255 -1:255 28 0] [0x2 3 1 [0 0] [6 4]] (REQUEST)
r 1.162563122 _10_ MAC  --- 0 AODV 48 [0 ffffffff 9 800] ------- [9:255 -1:255 28 0] [0x2 3 1 [0 0] [6 4]] (REQUEST)
r 1.162563159 _1_ MAC  --- 0 AODV 48 [0 ffffffff 9 800] ------- [9:255 -1:255 28 0] [0x2 3 1 [0 0] [6 4]] (REQUEST)
r 1.162587762 _8_ RTR  --- 0 AODV 48 [0 ffffffff 9 800] ------- [9:255 -1:255 28 0] [0x2 3 1 [0 0] [6 4]] (REQUEST)
r 1.162588095 _7_ RTR  --- 0 AODV 48 [0 ffffffff 9 800] ------- [9:255 -1:255 28 0] [0x2 3 1 [0 0] [6 4]] (REQUEST)
r 1.162588122 _10_ RTR  --- 0 AODV 48 [0 ffffffff 9 800] ------- [9:255 -1:255 28 0] [0x2 3 1 [0 0] [6 4]] (REQUEST)
r 1.162588159 _1_ RTR  --- 0 AODV 48 [0 ffffffff 9 800] ------- [9:255 -1:255 28 0] [0x2 3 1 [0 0] [6 4]] (REQUEST)
s 1.163117752 _6_ MAC  --- 0 RTS 44 [346e 0 6 0] 
r 1.163470506 _0_ MAC  --- 0 RTS 44 [346e 0 6 0] 
s 1.163480506 _0_ MAC  --- 0 CTS 38 [3334 6 0 0] 
s 1.163756867 _1_ RTR  --- 0 AODV 48 [0 ffffffff 7 800] ------- [1:255 -1:255 27 0] [0x2 4 1 [0 0] [4 4]] (REQUEST)
r 1.163785260 _6_ MAC  --- 0 CTS 38 [3334 6 0 0] 
s 1.163795260 _6_ MAC  --- 21 tcp 1598 [13a 0 6 800] ------- [6:0 0:1 30 0] [4 0] 0 0
s 1.163904697 _1_ RTR  --- 0 AODV 48 [0 ffffffff 7 800] ------- [1:255 -1:255 28 0] [0x2 3 1 [0 0] [6 4]] (REQUEST)
s 1.164375400 _10_ RTR  --- 0 AODV 48 [0 ffffffff 9 800] ------- [10:255 -1:255 27 0] [0x2 4 1 [0 0] [6 4]] (REQUEST)
s 1.164490400 _10_ MAC  --- 0 AODV 106 [0 ffffffff a 800] ------- [10:255 -1:255 27 0] [0x2 4 1 [0 0] [6 4]] (REQUEST)